# Solver information
# Time        	U_solver      	Ux_initial    	Ux_final      	Ux_iters      	Uy_initial    	Uy_final      	Uy_iters      	Uz_initial    	Uz_final      	Uz_iters      	U_converged   	p_solver      	p_initial     	p_final       	p_iters       	p_converged   
1             	smoothSolver	1.000000e+00	5.122540e-02	3	1.000000e+00	9.810160e-02	2	1.000000e+00	9.900340e-02	2	false	GAMG	1.000000e+00	7.451320e-03	9	true
2             	smoothSolver	9.803850e-02	8.352940e-03	6	4.943380e-01	4.330650e-02	6	4.196100e-01	3.999530e-02	9	false	GAMG	6.186050e-02	3.700830e-04	7	true
3             	smoothSolver	3.549290e-02	3.094920e-03	9	2.577460e-01	2.104600e-02	9	2.165390e-01	2.023830e-02	11	false	GAMG	3.944920e-02	2.352640e-04	9	true
4             	smoothSolver	1.953850e-02	1.881350e-03	9	1.287240e-01	1.267320e-02	9	1.406090e-01	1.151130e-02	11	false	GAMG	3.658940e-02	2.694840e-04	8	true
5             	smoothSolver	1.267490e-02	1.085890e-03	10	8.721260e-02	8.276170e-03	9	8.932010e-02	7.727530e-03	11	false	GAMG	3.842570e-02	3.582380e-04	7	true
6             	smoothSolver	8.977410e-03	8.760160e-04	10	5.911560e-02	5.083400e-03	10	6.380640e-02	5.981510e-03	11	false	GAMG	3.615790e-02	2.366020e-04	7	true
7             	smoothSolver	7.126220e-03	6.120550e-04	11	4.503240e-02	4.162700e-03	10	5.071900e-02	4.974650e-03	11	false	GAMG	2.874420e-02	2.611490e-04	6	true
8             	smoothSolver	6.111500e-03	5.455240e-04	11	3.662470e-02	3.597490e-03	10	4.332980e-02	3.554340e-03	12	false	GAMG	2.235450e-02	1.997820e-04	6	true
9             	smoothSolver	5.423190e-03	4.961560e-04	11	3.086170e-02	2.552540e-03	11	3.802980e-02	3.158310e-03	12	false	GAMG	1.873170e-02	1.561180e-04	6	true
10            	smoothSolver	4.907380e-03	4.574640e-04	11	2.661200e-02	2.243490e-03	11	3.401710e-02	2.841750e-03	12	false	GAMG	1.553800e-02	1.147230e-04	6	true
11            	smoothSolver	4.505320e-03	4.263050e-04	11	2.338930e-02	2.011120e-03	11	3.082590e-02	2.600220e-03	12	false	GAMG	1.344350e-02	7.622460e-05	6	true
12            	smoothSolver	4.183080e-03	4.002430e-04	11	2.095570e-02	1.822770e-03	11	2.830840e-02	2.400020e-03	12	false	GAMG	1.213840e-02	5.593120e-05	6	true
13            	smoothSolver	3.913970e-03	3.777200e-04	11	1.892310e-02	1.664770e-03	11	2.614890e-02	2.229780e-03	12	false	GAMG	1.110250e-02	1.000530e-04	5	true
14            	smoothSolver	3.680150e-03	3.582210e-04	11	1.724250e-02	1.530610e-03	11	2.435560e-02	2.082840e-03	12	false	GAMG	1.027220e-02	9.200390e-05	5	true
15            	smoothSolver	3.474140e-03	3.409870e-04	11	1.579480e-02	1.414290e-03	11	2.275280e-02	1.953910e-03	12	false	GAMG	9.478080e-03	4.747700e-05	6	true
16            	smoothSolver	3.291050e-03	3.257490e-04	11	1.452340e-02	1.313000e-03	11	2.141060e-02	1.842940e-03	12	false	GAMG	8.633350e-03	4.910190e-05	6	true
17            	smoothSolver	3.129580e-03	3.123080e-04	11	1.347420e-02	1.225190e-03	11	2.024870e-02	1.749090e-03	12	false	GAMG	7.833770e-03	4.432200e-05	6	true
18            	smoothSolver	2.985210e-03	2.447630e-04	12	1.251220e-02	1.147370e-03	11	1.924460e-02	1.665940e-03	12	false	GAMG	7.295270e-03	4.045310e-05	6	true
19            	smoothSolver	2.853740e-03	2.358570e-04	12	1.176560e-02	1.086490e-03	11	1.840810e-02	1.598510e-03	12	false	GAMG	6.569340e-03	3.462220e-05	6	true
20            	smoothSolver	2.735260e-03	2.277400e-04	12	1.102950e-02	1.025380e-03	11	1.762300e-02	1.531970e-03	12	false	GAMG	6.097270e-03	3.001730e-05	6	true
21            	smoothSolver	2.628180e-03	2.204160e-04	12	1.036020e-02	9.694610e-04	11	1.688290e-02	1.470670e-03	12	false	GAMG	5.694740e-03	2.691960e-05	6	true
22            	smoothSolver	2.531880e-03	2.137430e-04	12	9.775680e-03	9.190750e-04	11	1.622340e-02	1.414870e-03	12	false	GAMG	5.358890e-03	2.463730e-05	6	true
23            	smoothSolver	2.444270e-03	2.076440e-04	12	9.235250e-03	8.734270e-04	11	1.561670e-02	1.364370e-03	12	false	GAMG	5.047230e-03	5.042270e-05	5	true
24            	smoothSolver	2.365010e-03	2.020350e-04	12	8.758260e-03	8.321690e-04	11	1.507040e-02	1.317880e-03	12	false	GAMG	4.773980e-03	2.108690e-05	6	true
25            	smoothSolver	2.292870e-03	1.968620e-04	12	8.318310e-03	7.942720e-04	11	1.456900e-02	1.275940e-03	12	false	GAMG	4.505780e-03	4.432580e-05	5	true
26            	smoothSolver	2.227080e-03	1.920740e-04	12	7.921840e-03	7.599800e-04	11	1.410920e-02	1.236690e-03	12	false	GAMG	4.289380e-03	1.808720e-05	6	true
27            	smoothSolver	2.166680e-03	1.876090e-04	12	7.560200e-03	7.283320e-04	11	1.368550e-02	1.201100e-03	12	false	GAMG	4.076820e-03	1.679000e-05	6	true
28            	smoothSolver	2.111220e-03	1.834230e-04	12	7.226430e-03	6.993590e-04	11	1.329480e-02	1.167660e-03	12	false	GAMG	3.888260e-03	1.566680e-05	6	true
29            	smoothSolver	2.059590e-03	1.794900e-04	12	6.926850e-03	6.726850e-04	11	1.292770e-02	1.136740e-03	12	false	GAMG	3.719000e-03	1.461150e-05	6	true
30            	smoothSolver	2.011790e-03	1.757820e-04	12	6.645880e-03	6.479660e-04	11	1.259010e-02	1.107800e-03	12	false	GAMG	3.561840e-03	1.373880e-05	6	true
31            	smoothSolver	1.967090e-03	1.722830e-04	12	6.390000e-03	6.251840e-04	11	1.227150e-02	1.080920e-03	12	false	GAMG	3.415610e-03	1.295800e-05	6	true
32            	smoothSolver	1.925400e-03	1.689700e-04	12	6.152330e-03	6.040380e-04	11	1.197730e-02	1.055570e-03	12	false	GAMG	3.281730e-03	1.229840e-05	6	true
33            	smoothSolver	1.886050e-03	1.658330e-04	12	5.931300e-03	5.844000e-04	11	1.169680e-02	1.031900e-03	12	false	GAMG	3.149510e-03	1.157750e-05	6	true
34            	smoothSolver	1.849110e-03	1.628510e-04	12	5.729410e-03	5.661460e-04	11	1.143690e-02	1.009420e-03	12	false	GAMG	3.027810e-03	1.098180e-05	6	true
35            	smoothSolver	1.814080e-03	1.600170e-04	12	5.538620e-03	5.490890e-04	11	1.118840e-02	9.883700e-04	12	false	GAMG	2.912170e-03	1.041690e-05	6	true
36            	smoothSolver	1.781250e-03	1.573150e-04	12	5.362870e-03	5.332020e-04	11	1.095600e-02	9.682630e-04	12	false	GAMG	2.804390e-03	9.917880e-06	6	true
37            	smoothSolver	1.750040e-03	1.547360e-04	12	5.198540e-03	5.183490e-04	11	1.073320e-02	9.493510e-04	12	false	GAMG	2.704290e-03	9.455730e-06	6	true
38            	smoothSolver	1.720570e-03	1.522730e-04	12	5.045030e-03	5.044280e-04	11	1.052480e-02	9.312340e-04	12	false	GAMG	2.611320e-03	2.582210e-05	5	true
39            	smoothSolver	1.692370e-03	1.499150e-04	12	4.901240e-03	3.992660e-04	12	1.032260e-02	9.140090e-04	12	false	GAMG	2.594870e-03	2.442080e-05	5	true
40            	smoothSolver	1.665660e-03	1.476670e-04	12	4.724950e-03	3.857630e-04	12	1.011200e-02	8.954550e-04	12	false	GAMG	2.463720e-03	2.306410e-05	5	true
41            	smoothSolver	1.639990e-03	1.455110e-04	12	4.591780e-03	3.758720e-04	12	9.926660e-03	8.796820e-04	12	false	GAMG	2.381940e-03	2.186910e-05	5	true
42            	smoothSolver	1.615570e-03	1.434370e-04	12	4.473470e-03	3.670360e-04	12	9.755220e-03	8.647570e-04	12	false	GAMG	2.309870e-03	2.060180e-05	5	true
43            	smoothSolver	1.591980e-03	1.414440e-04	12	4.362930e-03	3.587710e-04	12	9.590650e-03	8.506160e-04	12	false	GAMG	2.244200e-03	1.952320e-05	5	true
44            	smoothSolver	1.569490e-03	1.395260e-04	12	4.258140e-03	3.509560e-04	12	9.434080e-03	8.369000e-04	12	false	GAMG	2.183730e-03	1.844060e-05	5	true
45            	smoothSolver	1.547830e-03	1.376790e-04	12	4.160580e-03	3.435800e-04	12	9.282220e-03	8.238800e-04	12	false	GAMG	2.126970e-03	1.754230e-05	5	true
46            	smoothSolver	1.527120e-03	1.359000e-04	12	4.069140e-03	3.366150e-04	12	9.138020e-03	8.112130e-04	12	false	GAMG	2.077130e-03	1.666030e-05	5	true
47            	smoothSolver	1.507070e-03	1.341840e-04	12	3.980380e-03	3.300010e-04	12	8.997570e-03	7.991430e-04	12	false	GAMG	2.027470e-03	1.592720e-05	5	true
48            	smoothSolver	1.487880e-03	1.325270e-04	12	3.899130e-03	3.237660e-04	12	8.863380e-03	7.873720e-04	12	false	GAMG	1.981800e-03	1.517980e-05	5	true
49            	smoothSolver	1.469240e-03	1.309290e-04	12	3.822780e-03	3.178790e-04	12	8.733510e-03	7.761340e-04	12	false	GAMG	1.938370e-03	1.456760e-05	5	true
50            	smoothSolver	1.451370e-03	1.293820e-04	12	3.750460e-03	3.123070e-04	12	8.608700e-03	7.651150e-04	12	false	GAMG	1.897730e-03	1.395550e-05	5	true
51            	smoothSolver	1.434010e-03	1.278860e-04	12	3.680140e-03	3.069770e-04	12	8.486870e-03	7.545860e-04	12	false	GAMG	1.855380e-03	1.347190e-05	5	true
52            	smoothSolver	1.417340e-03	1.264390e-04	12	3.613420e-03	3.018890e-04	12	8.369010e-03	7.442900e-04	12	false	GAMG	1.813580e-03	1.296870e-05	5	true
53            	smoothSolver	1.401090e-03	1.250370e-04	12	3.550530e-03	2.970500e-04	12	8.255330e-03	7.344560e-04	12	false	GAMG	1.772970e-03	1.256190e-05	5	true
54            	smoothSolver	1.385470e-03	1.236780e-04	12	3.490520e-03	2.924380e-04	12	8.145370e-03	7.247940e-04	12	false	GAMG	1.734490e-03	1.212740e-05	5	true
55            	smoothSolver	1.370220e-03	1.223600e-04	12	3.433570e-03	2.880360e-04	12	8.038800e-03	7.155470e-04	12	false	GAMG	1.698200e-03	1.177470e-05	5	true
56            	smoothSolver	1.355550e-03	1.210800e-04	12	3.379420e-03	2.838190e-04	12	7.935540e-03	7.064480e-04	12	false	GAMG	1.663990e-03	1.139690e-05	5	true
57            	smoothSolver	1.341200e-03	1.198350e-04	12	3.327070e-03	2.797840e-04	12	7.835150e-03	6.977260e-04	12	false	GAMG	1.630860e-03	1.108520e-05	5	true
58            	smoothSolver	1.327370e-03	1.186240e-04	12	3.277790e-03	2.759140e-04	12	7.737740e-03	6.891290e-04	12	false	GAMG	1.599050e-03	1.075290e-05	5	true
59            	smoothSolver	1.313820e-03	1.174450e-04	12	3.229850e-03	2.721940e-04	12	7.642800e-03	6.808740e-04	12	false	GAMG	1.568390e-03	1.047230e-05	5	true
60            	smoothSolver	1.300720e-03	1.162950e-04	12	3.184870e-03	2.686230e-04	12	7.550700e-03	6.727300e-04	12	false	GAMG	1.538990e-03	1.016380e-05	5	true
61            	smoothSolver	1.287880e-03	1.151740e-04	12	3.140760e-03	2.651840e-04	12	7.460760e-03	6.649040e-04	12	false	GAMG	1.510540e-03	9.908880e-06	5	true
62            	smoothSolver	1.275470e-03	1.140790e-04	12	3.098950e-03	2.618710e-04	12	7.373370e-03	6.571650e-04	12	false	GAMG	1.483920e-03	9.622910e-06	5	true
63            	smoothSolver	1.263270e-03	1.130100e-04	12	3.058010e-03	2.586720e-04	12	7.287960e-03	6.497260e-04	12	false	GAMG	1.458290e-03	9.385380e-06	5	true
64            	smoothSolver	1.251450e-03	1.119650e-04	12	3.018820e-03	2.555720e-04	12	7.204840e-03	6.423580e-04	12	false	GAMG	1.433880e-03	9.127130e-06	5	true
65            	smoothSolver	1.239800e-03	1.109440e-04	12	2.980550e-03	2.525650e-04	12	7.123590e-03	6.352700e-04	12	false	GAMG	1.410070e-03	8.906220e-06	5	true
66            	smoothSolver	1.228500e-03	1.099440e-04	12	2.944150e-03	2.496390e-04	12	7.044360e-03	6.282400e-04	12	false	GAMG	1.387450e-03	8.671770e-06	5	true
67            	smoothSolver	1.217360e-03	1.089670e-04	12	2.908600e-03	2.467930e-04	12	6.966870e-03	6.214730e-04	12	false	GAMG	1.366060e-03	8.473760e-06	5	true
68            	smoothSolver	1.206550e-03	1.080090e-04	12	2.874550e-03	2.440230e-04	12	6.891240e-03	6.147590e-04	12	false	GAMG	1.345760e-03	8.255890e-06	5	true
69            	smoothSolver	1.195880e-03	1.070720e-04	12	2.840670e-03	2.413220e-04	12	6.817170e-03	6.082900e-04	12	false	GAMG	1.326150e-03	8.078180e-06	5	true
70            	smoothSolver	1.185520e-03	1.061530e-04	12	2.808010e-03	2.386800e-04	12	6.744990e-03	6.018650e-04	12	false	GAMG	1.307010e-03	7.885930e-06	5	true
71            	smoothSolver	1.175290e-03	1.052540e-04	12	2.775360e-03	2.360930e-04	12	6.674110e-03	5.956730e-04	12	false	GAMG	1.288320e-03	7.720300e-06	5	true
72            	smoothSolver	1.165340e-03	1.043710e-04	12	2.743960e-03	2.335550e-04	12	6.604880e-03	5.895110e-04	12	false	GAMG	1.270480e-03	7.530640e-06	5	true
73            	smoothSolver	1.155500e-03	1.035060e-04	12	2.712880e-03	2.310670e-04	12	6.536860e-03	5.835630e-04	12	false	GAMG	1.253410e-03	7.364280e-06	5	true
74            	smoothSolver	1.145920e-03	1.026560e-04	12	2.683020e-03	2.286290e-04	12	6.470380e-03	5.776400e-04	12	false	GAMG	1.237370e-03	7.190910e-06	5	true
75            	smoothSolver	1.136450e-03	1.018220e-04	12	2.653290e-03	2.262380e-04	12	6.405140e-03	5.719230e-04	12	false	GAMG	1.221760e-03	7.051750e-06	5	true
76            	smoothSolver	1.127230e-03	1.010030e-04	12	2.624630e-03	2.238870e-04	12	6.341370e-03	5.662280e-04	12	false	GAMG	1.206470e-03	6.904530e-06	5	true
77            	smoothSolver	1.118090e-03	1.001990e-04	12	2.595940e-03	2.215740e-04	12	6.278630e-03	5.607300e-04	12	false	GAMG	1.191340e-03	6.787780e-06	5	true
78            	smoothSolver	1.109180e-03	9.940780e-05	12	2.568230e-03	2.192950e-04	12	6.217140e-03	5.552480e-04	12	false	GAMG	1.176760e-03	6.655750e-06	5	true
79            	smoothSolver	1.100360e-03	9.863080e-05	12	2.540650e-03	2.170520e-04	12	6.156650e-03	5.499510e-04	12	false	GAMG	1.162410e-03	6.541470e-06	5	true
80            	smoothSolver	1.091760e-03	9.786640e-05	12	2.514100e-03	2.148440e-04	12	6.097470e-03	5.446610e-04	12	false	GAMG	1.148370e-03	6.418400e-06	5	true
81            	smoothSolver	1.083230e-03	9.711540e-05	12	2.487510e-03	2.126720e-04	12	6.039150e-03	5.395440e-04	12	false	GAMG	1.133900e-03	6.313390e-06	5	true
82            	smoothSolver	1.074910e-03	9.637620e-05	12	2.461920e-03	2.105380e-04	12	5.982010e-03	5.344330e-04	12	false	GAMG	1.119440e-03	6.201170e-06	5	true
83            	smoothSolver	1.066660e-03	9.564940e-05	12	2.436380e-03	2.084410e-04	12	5.925780e-03	5.294890e-04	12	false	GAMG	1.105590e-03	6.105520e-06	5	true
84            	smoothSolver	1.058610e-03	9.493330e-05	12	2.411680e-03	2.063760e-04	12	5.870570e-03	5.245450e-04	12	false	GAMG	1.092620e-03	6.006250e-06	5	true
85            	smoothSolver	1.050610e-03	9.422880e-05	12	2.386760e-03	2.043400e-04	12	5.816130e-03	5.197630e-04	12	false	GAMG	1.080250e-03	5.923670e-06	5	true
86            	smoothSolver	1.042800e-03	9.353430e-05	12	2.362730e-03	2.023320e-04	12	5.762740e-03	5.149820e-04	12	false	GAMG	1.068510e-03	5.842630e-06	5	true
87            	smoothSolver	1.035050e-03	9.285080e-05	12	2.338650e-03	2.003530e-04	12	5.710160e-03	5.103540e-04	12	false	GAMG	1.057050e-03	5.771790e-06	5	true
88            	smoothSolver	1.027480e-03	9.217680e-05	12	2.315290e-03	1.983970e-04	12	5.658430e-03	5.057230e-04	12	false	GAMG	1.045370e-03	5.693940e-06	5	true
89            	smoothSolver	1.019960e-03	9.151320e-05	12	2.291770e-03	1.964660e-04	12	5.607400e-03	5.012410e-04	12	false	GAMG	1.033440e-03	5.620370e-06	5	true
90            	smoothSolver	1.012600e-03	9.085840e-05	12	2.269120e-03	1.945610e-04	12	5.557340e-03	4.967570e-04	12	false	GAMG	1.021720e-03	5.546250e-06	5	true
91            	smoothSolver	1.005290e-03	9.021350e-05	12	2.246410e-03	1.926870e-04	12	5.508020e-03	4.924160e-04	12	false	GAMG	1.010880e-03	5.475150e-06	5	true
92            	smoothSolver	9.981420e-04	8.957680e-05	12	2.224440e-03	1.908360e-04	12	5.459500e-03	4.880670e-04	12	false	GAMG	1.000620e-03	5.405680e-06	5	true
93            	smoothSolver	9.910320e-04	8.894950e-05	12	2.202290e-03	1.890090e-04	12	5.411640e-03	4.838550e-04	12	false	GAMG	9.904060e-04	5.337820e-06	5	true
94            	smoothSolver	9.840800e-04	8.833000e-05	12	2.180920e-03	1.872060e-04	12	5.364590e-03	4.796350e-04	12	false	GAMG	9.803380e-04	5.272380e-06	5	true
95            	smoothSolver	9.771610e-04	8.771940e-05	12	2.159440e-03	1.854320e-04	12	5.318180e-03	4.755470e-04	12	false	GAMG	9.707270e-04	5.207810e-06	5	true
96            	smoothSolver	9.703940e-04	8.711630e-05	12	2.138680e-03	1.836780e-04	12	5.272490e-03	4.714480e-04	12	false	GAMG	9.615860e-04	5.148670e-06	5	true
97            	smoothSolver	9.636590e-04	8.652160e-05	12	2.117770e-03	1.819470e-04	12	5.227410e-03	4.674750e-04	12	false	GAMG	9.523130e-04	5.088760e-06	5	true
98            	smoothSolver	9.570680e-04	8.593390e-05	12	2.097600e-03	1.802380e-04	12	5.183010e-03	4.634920e-04	12	false	GAMG	9.431320e-04	5.033830e-06	5	true
99            	smoothSolver	9.505050e-04	8.535420e-05	12	2.077310e-03	1.785540e-04	12	5.139220e-03	4.596310e-04	12	false	GAMG	9.343230e-04	4.976610e-06	5	true
100           	smoothSolver	9.440790e-04	8.478100e-05	12	2.057730e-03	1.768910e-04	12	5.096080e-03	4.557590e-04	12	false	GAMG	9.258460e-04	4.925400e-06	5	true
101           	smoothSolver	9.376770e-04	8.421540e-05	12	2.038000e-03	1.752500e-04	12	5.053490e-03	4.520040e-04	12	false	GAMG	9.174430e-04	4.870550e-06	5	true
102           	smoothSolver	9.314080e-04	8.365610e-05	12	2.018940e-03	1.736280e-04	12	5.011530e-03	4.482360e-04	12	false	GAMG	9.092870e-04	4.820310e-06	5	true
103           	smoothSolver	9.251620e-04	8.310400e-05	12	1.999700e-03	1.720280e-04	12	4.970120e-03	4.445830e-04	12	false	GAMG	9.012450e-04	4.766760e-06	5	true
104           	smoothSolver	9.190440e-04	8.255790e-05	12	1.981120e-03	1.704490e-04	12	4.929290e-03	4.409160e-04	12	false	GAMG	8.936010e-04	4.718140e-06	5	true
105           	smoothSolver	9.129470e-04	8.201890e-05	12	1.962390e-03	1.688920e-04	12	4.888990e-03	4.373600e-04	12	false	GAMG	8.860390e-04	4.665980e-06	5	true
106           	smoothSolver	9.069730e-04	8.148550e-05	12	1.944330e-03	1.673520e-04	12	4.849240e-03	4.337890e-04	12	false	GAMG	8.784980e-04	4.619670e-06	5	true
107           	smoothSolver	9.010180e-04	8.095880e-05	12	1.926110e-03	1.658320e-04	12	4.810010e-03	4.303260e-04	12	false	GAMG	8.711090e-04	4.569500e-06	5	true
108           	smoothSolver	8.951800e-04	8.043740e-05	12	1.908530e-03	1.643300e-04	12	4.771300e-03	4.268470e-04	12	false	GAMG	8.638870e-04	4.524690e-06	5	true
109           	smoothSolver	8.893580e-04	7.992250e-05	12	1.890780e-03	1.628490e-04	12	4.733090e-03	4.234730e-04	12	false	GAMG	8.568750e-04	4.475250e-06	5	true
110           	smoothSolver	8.836500e-04	7.941260e-05	12	1.873670e-03	1.613850e-04	12	4.695370e-03	4.200830e-04	12	false	GAMG	8.500120e-04	4.430110e-06	5	true
111           	smoothSolver	8.779570e-04	7.890890e-05	12	1.856400e-03	1.599390e-04	12	4.658120e-03	4.167930e-04	12	false	GAMG	8.431260e-04	4.382520e-06	5	true
112           	smoothSolver	8.723750e-04	7.841010e-05	12	1.839740e-03	1.585110e-04	12	4.621350e-03	4.134880e-04	12	false	GAMG	8.364870e-04	4.339400e-06	5	true
113           	smoothSolver	8.670130e-04	7.792320e-05	12	1.822960e-03	1.571010e-04	12	4.587280e-03	4.103030e-04	12	false	GAMG	8.835000e-04	3.376990e-06	5	true
114           	smoothSolver	8.614590e-04	7.741080e-05	12	1.807860e-03	1.557450e-04	12	4.553500e-03	4.069660e-04	12	false	GAMG	8.490470e-04	4.468630e-06	5	true
115           	smoothSolver	8.564430e-04	7.696190e-05	12	1.791070e-03	1.543540e-04	12	4.521820e-03	4.038990e-04	12	false	GAMG	1.055980e-03	5.038730e-06	5	true
116           	smoothSolver	8.510200e-04	7.639340e-05	12	1.778960e-03	1.531220e-04	12	4.494700e-03	4.005860e-04	12	false	GAMG	9.267010e-04	3.811650e-06	5	true
117           	smoothSolver	8.453800e-04	7.596790e-05	12	1.761820e-03	1.517710e-04	12	4.452930e-03	3.971650e-04	12	false	GAMG	1.161590e-03	6.702280e-06	5	true
118           	smoothSolver	8.402750e-04	7.538320e-05	12	1.749580e-03	1.505820e-04	12	4.429820e-03	3.941490e-04	12	false	GAMG	9.980530e-04	4.275660e-06	5	true
119           	smoothSolver	8.347750e-04	7.499570e-05	12	1.732440e-03	1.492160e-04	12	4.388930e-03	3.908750e-04	12	false	GAMG	1.325170e-03	9.688090e-06	5	true
120           	smoothSolver	8.289920e-04	7.439940e-05	12	1.718910e-03	1.480710e-04	12	4.364530e-03	3.881700e-04	12	false	GAMG	1.076000e-03	6.028970e-06	5	true
121           	smoothSolver	8.228900e-04	7.395540e-05	12	1.705290e-03	1.468830e-04	12	4.323440e-03	3.848820e-04	12	false	GAMG	1.214760e-03	9.037260e-06	5	true
122           	smoothSolver	8.174170e-04	7.343400e-05	12	1.692560e-03	1.457870e-04	12	4.295640e-03	3.819150e-04	12	false	GAMG	1.158480e-03	7.695360e-06	5	true
123           	smoothSolver	8.120330e-04	7.297370e-05	12	1.678330e-03	1.446270e-04	12	4.267390e-03	3.793650e-04	12	false	GAMG	1.132980e-03	6.385150e-06	5	true
124           	smoothSolver	8.067630e-04	7.252680e-05	12	1.664230e-03	1.434460e-04	12	4.237440e-03	3.770460e-04	12	false	GAMG	1.099190e-03	5.995990e-06	5	true
125           	smoothSolver	8.013780e-04	7.207700e-05	12	1.649160e-03	1.422200e-04	12	4.205740e-03	3.748010e-04	12	false	GAMG	1.060730e-03	4.942380e-06	5	true
126           	smoothSolver	7.960950e-04	7.162650e-05	12	1.634520e-03	1.409680e-04	12	4.175490e-03	3.725440e-04	12	false	GAMG	1.019370e-03	6.389280e-06	5	true
127           	smoothSolver	7.908600e-04	7.117750e-05	12	1.619380e-03	1.396910e-04	12	4.145890e-03	3.702680e-04	12	false	GAMG	9.795710e-04	6.323420e-06	5	true
128           	smoothSolver	7.858020e-04	7.073280e-05	12	1.604650e-03	1.384160e-04	12	4.116590e-03	3.678750e-04	12	false	GAMG	9.453520e-04	5.683580e-06	5	true
129           	smoothSolver	7.808970e-04	7.029920e-05	12	1.589710e-03	1.371590e-04	12	4.088720e-03	3.655560e-04	12	false	GAMG	9.188220e-04	5.359560e-06	5	true
130           	smoothSolver	7.762420e-04	6.988260e-05	12	1.575330e-03	1.359210e-04	12	4.061680e-03	3.632190e-04	12	false	GAMG	8.961940e-04	5.108680e-06	5	true
131           	smoothSolver	7.717170e-04	6.948290e-05	12	1.560890e-03	1.347110e-04	12	4.034630e-03	3.608990e-04	12	false	GAMG	8.742650e-04	8.719490e-06	4	true
132           	smoothSolver	7.672740e-04	6.908570e-05	12	1.547010e-03	1.335200e-04	12	4.006270e-03	3.584070e-04	12	false	GAMG	8.547630e-04	8.541260e-06	4	true
133           	smoothSolver	7.628910e-04	6.869490e-05	12	1.533260e-03	1.323570e-04	12	3.979720e-03	3.560870e-04	12	false	GAMG	8.347380e-04	8.250050e-06	4	true
134           	smoothSolver	7.585530e-04	6.830520e-05	12	1.519970e-03	1.312090e-04	12	3.952720e-03	3.536810e-04	12	false	GAMG	8.165490e-04	7.882250e-06	4	true
135           	smoothSolver	7.542030e-04	6.791820e-05	12	1.506600e-03	1.300820e-04	12	3.925720e-03	3.513120e-04	12	false	GAMG	8.000850e-04	7.731580e-06	4	true
136           	smoothSolver	7.499140e-04	6.753310e-05	12	1.493750e-03	1.289680e-04	12	3.898770e-03	3.489020e-04	12	false	GAMG	7.849190e-04	7.465160e-06	4	true
137           	smoothSolver	7.456220e-04	6.715120e-05	12	1.480760e-03	1.278730e-04	12	3.872030e-03	3.465510e-04	12	false	GAMG	7.708200e-04	7.382420e-06	4	true
138           	smoothSolver	7.413920e-04	6.677140e-05	12	1.468290e-03	1.267900e-04	12	3.845470e-03	3.441700e-04	12	false	GAMG	7.579000e-04	7.153760e-06	4	true
139           	smoothSolver	7.371610e-04	6.639500e-05	12	1.455700e-03	1.257240e-04	12	3.819180e-03	3.418520e-04	12	false	GAMG	7.460600e-04	7.102070e-06	4	true
140           	smoothSolver	7.329930e-04	6.602080e-05	12	1.443590e-03	1.246700e-04	12	3.793090e-03	3.395070e-04	12	false	GAMG	7.355400e-04	6.893630e-06	4	true
141           	smoothSolver	7.288260e-04	6.565000e-05	12	1.431320e-03	1.236310e-04	12	3.767280e-03	3.372270e-04	12	false	GAMG	7.264580e-04	6.859040e-06	4	true
142           	smoothSolver	7.247220e-04	6.528130e-05	12	1.419510e-03	1.226020e-04	12	3.741650e-03	3.349210e-04	12	false	GAMG	7.183500e-04	6.667680e-06	4	true
143           	smoothSolver	7.206170e-04	6.491600e-05	12	1.407530e-03	1.215870e-04	12	3.716280e-03	3.326790e-04	12	false	GAMG	7.107860e-04	6.645000e-06	4	true
144           	smoothSolver	7.165730e-04	6.455270e-05	12	1.396000e-03	1.205820e-04	12	3.691100e-03	3.304130e-04	12	false	GAMG	7.038310e-04	6.468370e-06	4	true
145           	smoothSolver	7.125300e-04	6.419280e-05	12	1.384320e-03	1.195910e-04	12	3.666190e-03	3.282100e-04	12	false	GAMG	6.973060e-04	6.453440e-06	4	true
146           	smoothSolver	7.085470e-04	6.383500e-05	12	1.373090e-03	1.186100e-04	12	3.641470e-03	3.259840e-04	12	false	GAMG	6.910910e-04	6.286850e-06	4	true
147           	smoothSolver	7.045660e-04	6.348050e-05	12	1.361690e-03	1.176420e-04	12	3.617020e-03	3.238210e-04	12	false	GAMG	6.851400e-04	6.277830e-06	4	true
148           	smoothSolver	7.006430e-04	6.312800e-05	12	1.350730e-03	1.166830e-04	12	3.592760e-03	3.216350e-04	12	false	GAMG	6.794740e-04	6.121230e-06	4	true
149           	smoothSolver	6.967200e-04	6.277860e-05	12	1.339590e-03	1.157370e-04	12	3.568740e-03	3.195090e-04	12	false	GAMG	6.739880e-04	6.116510e-06	4	true
150           	smoothSolver	6.928530e-04	6.243110e-05	12	1.328880e-03	1.148000e-04	12	3.544900e-03	3.173610e-04	12	false	GAMG	6.687110e-04	5.966030e-06	4	true
151           	smoothSolver	6.889880e-04	6.208690e-05	12	1.317990e-03	1.138750e-04	12	3.521320e-03	3.152730e-04	12	false	GAMG	6.634600e-04	5.962940e-06	4	true
152           	smoothSolver	6.851790e-04	6.174450e-05	12	1.307510e-03	1.129580e-04	12	3.497920e-03	3.131650e-04	12	false	GAMG	6.584630e-04	5.818220e-06	4	true
153           	smoothSolver	6.813720e-04	6.140530e-05	12	1.296870e-03	1.120540e-04	12	3.474770e-03	3.111140e-04	12	false	GAMG	6.535630e-04	5.817940e-06	4	true
154           	smoothSolver	6.776190e-04	6.106800e-05	12	1.286640e-03	1.111570e-04	12	3.451790e-03	3.090440e-04	12	false	GAMG	6.488870e-04	5.679700e-06	4	true
155           	smoothSolver	6.738690e-04	6.073380e-05	12	1.276240e-03	1.102730e-04	12	3.429080e-03	3.070320e-04	12	false	GAMG	6.443440e-04	5.680230e-06	4	true
156           	smoothSolver	6.701730e-04	6.040150e-05	12	1.266230e-03	1.093950e-04	12	3.406540e-03	3.050010e-04	12	false	GAMG	6.399590e-04	5.545690e-06	4	true
157           	smoothSolver	6.664780e-04	6.007220e-05	12	1.256050e-03	1.085300e-04	12	3.384270e-03	3.030280e-04	12	false	GAMG	6.356450e-04	5.547390e-06	4	true
158           	smoothSolver	6.628360e-04	5.974480e-05	12	1.246250e-03	1.076710e-04	12	3.362160e-03	3.010350e-04	12	false	GAMG	6.314540e-04	5.417790e-06	4	true
159           	smoothSolver	6.591970e-04	5.942030e-05	12	1.236280e-03	1.068240e-04	12	3.340300e-03	2.990990e-04	12	false	GAMG	6.273650e-04	5.420860e-06	4	true
160           	smoothSolver	6.556090e-04	5.909760e-05	12	1.226690e-03	1.059830e-04	12	3.318600e-03	2.971440e-04	12	false	GAMG	6.233040e-04	5.294900e-06	4	true
161           	smoothSolver	6.520220e-04	5.877780e-05	12	1.216940e-03	1.051530e-04	12	3.297160e-03	2.952440e-04	12	false	GAMG	6.191760e-04	5.298770e-06	4	true
162           	smoothSolver	6.484840e-04	5.845960e-05	12	1.207570e-03	1.043300e-04	12	3.275880e-03	2.933250e-04	12	false	GAMG	6.150340e-04	5.177020e-06	4	true
163           	smoothSolver	6.449500e-04	5.814440e-05	12	1.198020e-03	1.035170e-04	12	3.254830e-03	2.914610e-04	12	false	GAMG	6.109700e-04	5.181930e-06	4	true
164           	smoothSolver	6.414640e-04	5.783090e-05	12	1.188840e-03	1.027110e-04	12	3.233950e-03	2.895790e-04	12	false	GAMG	6.070750e-04	5.063600e-06	4	true
165           	smoothSolver	6.379820e-04	5.752020e-05	12	1.179490e-03	1.019150e-04	12	3.213300e-03	2.877490e-04	12	false	GAMG	6.031400e-04	5.069550e-06	4	true
166           	smoothSolver	6.345470e-04	5.721120e-05	12	1.170500e-03	1.011250e-04	12	3.192810e-03	2.859020e-04	12	false	GAMG	5.993050e-04	4.954550e-06	4	true
167           	smoothSolver	6.311160e-04	5.690490e-05	12	1.161330e-03	1.003460e-04	12	3.172550e-03	2.841070e-04	12	false	GAMG	5.954780e-04	4.960750e-06	4	true
168           	smoothSolver	6.277310e-04	5.660030e-05	12	1.152530e-03	9.957210e-05	12	3.152450e-03	2.822950e-04	12	false	GAMG	5.917340e-04	4.848500e-06	4	true
169           	smoothSolver	6.243480e-04	5.629840e-05	12	1.143560e-03	9.880820e-05	12	3.132570e-03	2.805330e-04	12	false	GAMG	5.879530e-04	4.855570e-06	4	true
170           	smoothSolver	6.210100e-04	5.599810e-05	12	1.134930e-03	9.804980e-05	12	3.112840e-03	2.787540e-04	12	false	GAMG	5.842220e-04	4.746270e-06	4	true
171           	smoothSolver	6.176750e-04	5.570050e-05	12	1.126140e-03	9.730110e-05	12	3.093320e-03	2.770250e-04	12	false	GAMG	5.804810e-04	4.754030e-06	4	true
172           	smoothSolver	6.143850e-04	5.540430e-05	12	1.117690e-03	9.655790e-05	12	3.073940e-03	2.752780e-04	12	false	GAMG	5.767740e-04	4.647890e-06	4	true
173           	smoothSolver	6.110970e-04	5.511080e-05	12	1.109070e-03	9.582420e-05	12	3.054790e-03	2.735810e-04	12	false	GAMG	5.730430e-04	4.656400e-06	4	true
174           	smoothSolver	6.078520e-04	5.481870e-05	12	1.100790e-03	9.509590e-05	12	3.035780e-03	2.718670e-04	12	false	GAMG	5.693190e-04	4.553220e-06	4	true
175           	smoothSolver	6.046090e-04	5.452930e-05	12	1.092340e-03	9.437680e-05	12	3.016980e-03	2.702010e-04	12	false	GAMG	5.655460e-04	4.562650e-06	4	true
176           	smoothSolver	6.014100e-04	5.424120e-05	12	1.084230e-03	9.366260e-05	12	2.998320e-03	2.685180e-04	12	false	GAMG	5.619210e-04	4.461510e-06	4	true
177           	smoothSolver	5.982120e-04	5.395560e-05	12	1.075950e-03	9.295740e-05	12	2.979860e-03	2.668820e-04	12	false	GAMG	5.583030e-04	4.471140e-06	4	true
178           	smoothSolver	5.950560e-04	5.367140e-05	12	1.067990e-03	9.225690e-05	12	2.961530e-03	2.652300e-04	12	false	GAMG	5.547870e-04	4.372730e-06	4	true
179           	smoothSolver	5.919020e-04	5.338970e-05	12	1.059880e-03	9.156530e-05	12	2.943410e-03	2.636240e-04	12	false	GAMG	5.513080e-04	4.383420e-06	4	true
180           	smoothSolver	5.887890e-04	5.310940e-05	12	1.052080e-03	9.087810e-05	12	2.925420e-03	2.620020e-04	12	false	GAMG	5.478590e-04	4.287860e-06	4	true
181           	smoothSolver	5.856800e-04	5.283160e-05	12	1.044120e-03	9.019950e-05	12	2.907630e-03	2.604250e-04	12	false	GAMG	5.444860e-04	4.299060e-06	4	true
182           	smoothSolver	5.826100e-04	5.255510e-05	12	1.036470e-03	8.952540e-05	12	2.889970e-03	2.588320e-04	12	false	GAMG	5.411950e-04	4.205750e-06	4	true
183           	smoothSolver	5.795420e-04	5.228110e-05	12	1.028670e-03	8.885980e-05	12	2.872490e-03	2.572840e-04	12	false	GAMG	5.378330e-04	4.217200e-06	4	true
184           	smoothSolver	5.765130e-04	5.200830e-05	12	1.021170e-03	8.819840e-05	12	2.855130e-03	2.557200e-04	12	false	GAMG	5.344400e-04	4.126290e-06	4	true
185           	smoothSolver	5.734880e-04	5.173800e-05	12	1.013510e-03	8.754530e-05	12	2.837980e-03	2.541990e-04	12	false	GAMG	5.310490e-04	4.138470e-06	4	true
186           	smoothSolver	5.705010e-04	5.146890e-05	12	1.006160e-03	8.689620e-05	12	2.820940e-03	2.526630e-04	12	false	GAMG	5.277240e-04	4.049970e-06	4	true
187           	smoothSolver	5.675170e-04	5.120220e-05	12	9.986470e-04	8.625510e-05	12	2.804090e-03	2.511700e-04	12	false	GAMG	5.244540e-04	4.062510e-06	4	true